# age: 4-6
Q If you have 5 apples and eat one how many apples do you have left?
A 4
Q What color is the sky?
A Blue
Q How many legs does a cat have?
A 4
Q What do you use to brush your teeth?
A Toothbrush
Q How many days are there in a week?
A 7
Q What do you wear on your feet?
A Shoes
Q What do you use to write with?
A Pencil
Q How many fingers do you have on one hand?
A 5
Q What do you use to cut paper?
A Scissors
Q What animal says "meow"?
A Cat
Q What do you use to eat soup?
A Spoon
Q What is the opposite of hot?
A Cold
Q What is the opposite of big?
A Small
Q What color is grass?
A Green
Q How many wheels does a bicycle have?
A 2
Q What is the color of an orange?
A Orange
Q What do you use to wash your hands?
A Soap
Q What do you use to dry your hands?
A Towel
Q What do you use to see things far away?
A Telescope
Q What is the opposite of up?
A Down

# age: 7-9
Q What is the capital of France?
A Paris
Q How many continents are there?
A 7
Q What is the largest planet in our solar system?
A Jupiter
Q How many sides does a triangle have?
A 3 
Q What do you use to measure time?
A Clock
Q Who painted the Mona Lisa?
A Leonardo da Vinci
Q What is the tallest mammal on Earth?
A Giraffe
Q What do you use to send emails?
A Computer
Q What is the fastest land animal?
A Cheetah
Q How many bones are there in the human body?
A 206
Q What is the longest river in the world?
A Nile River
Q What is the capital of Japan?
A Tokyo
Q What is the chemical symbol for water?
A H2O
Q What is the hardest natural substance on Earth?
A Diamond
Q What is the largest ocean on Earth?
A Pacific Ocean
Q What is the process of plants making their own food called?
A Photosynthesis
Q What is the closest planet to the Sun?
A Mercury
Q What is the highest mountain in the world?
A Mount Everest
Q What is the study of stars and planets called?
A Astronomy
Q What is the capital of Australia?
A Canberra

# age: 10-14
Q Who wrote "Romeo and Juliet"?
A William Shakespeare
Q What is the chemical symbol for oxygen?
A O
Q What is the boiling point of water in Celsius?
A 100 degrees Celsius
Q What is the largest organ in the human body?
A Skin
Q Who discovered penicillin?
A Alexander Fleming
Q What is the capital of China?
A Beijing
Q What is the atomic number of hydrogen?
A 1
Q What is the process of plants releasing water vapor called?
A Transpiration
Q Who painted the famous artwork "The Starry Night"?
A Vincent van Gogh
Q What is the study of living organisms called?
A Biology
Q What is the chemical symbol for gold?
A Au
Q What is the largest country by land area?
A Russia
Q What is the scientific term for the study of earthquakes?
A Seismology
Q What is the pH scale used to measure?
A Acidity or alkalinity
Q What is the longest bone in the human body?
A Femur
Q What is the process of converting sunlight into energy called?
A Photosynthesis
Q Who developed the theory of relativity?
A Albert Einstein
Q What is the largest moon in the solar system?
A Ganymede

# age: 15-18
Q Who discovered gravity?
A Isaac Newton
Q What is the chemical symbol for carbon dioxide?
A CO2
Q What is the capital of Brazil?
A Brasília
Q What is the main component of Earth's atmosphere?
A Nitrogen
Q What is the powerhouse of the cell?
A Mitochondria
Q What is the capital of South Africa?
A Pretoria
Q What is the largest desert in the world?
A Sahara Desert
Q What is the process of a liquid turning into gas called?
A Evaporation
Q Who developed the theory of evolution by natural selection?
A Charles Darwin
Q What is the chemical symbol for sodium?
A Na
Q What is the process of rocks breaking down into smaller pieces called?
A Weathering
Q What is the capital of Canada?
A Ottawa
Q What is the largest artery in the human body?
A Aorta
Q What is the capital of Italy?
A Rome
Q What is the chemical symbol for iron?
A Fe
Q What is the largest organ in the human body?
A Skin
Q What is the study of the Earth's physical structure and substance called?
A Geology
Q Who developed the theory of plate tectonics?
A Alfred Wegener
Q What is the chemical formula for glucose?
A C6H12O6
